 BEGIN_INFO
   Fermi Energy:    7.02339
 END_INFO
 
 BEGIN_BLOCK_BANDGRID_3D
   THIS_FILE_WAS_GENERATED_BY_VASPKIT
   BEGIN_BANDGRID_3D
     6
    31    31    31
    0.0    0.0    0.0
    1.311255102    0.757053486    0.247851692
   -1.311255102    0.757053486    0.247851692
    0.000000000   -1.514106972    0.247851692
   BAND:     85
        6.97748        6.86049        6.75054        6.74105        6.68071        6.57334        6.43557        6.27468        6.09848        5.91689
        5.73667        5.56023        5.38686        5.21454        5.04204        4.87510        4.87510        5.04204        5.21454        5.38686
        5.56023        5.73667        5.91689        6.09848        6.27468        6.43557        6.57334        6.68071        6.74105        6.75054
        6.86049        6.86049        6.86652        6.76497        6.74507        6.69772        6.59991        6.46975        6.31922        6.15258
        5.97796        5.80299        5.63120        5.46246        5.29467        5.12566        4.95633        4.83075        4.96397        5.13137
        5.29997        5.46961        5.64253        5.82041        6.00252        6.18409        6.35620        6.50971        6.63872        6.72910
        6.76202        6.76223        6.75054        6.76497        6.77482        6.76276        6.72001        6.62243        6.46930        6.30397
        6.14266        5.98066        5.81988        5.66296        5.50967        5.35740        5.20293        5.04504        4.89611        4.90854
        5.05561        5.21120        5.36780        5.52715        5.69163        5.86176        6.03467        6.20405        6.36470        6.51895
        6.65932        6.74463        6.76202        6.74105        6.74507        6.76276        6.75693        6.72065        6.64889        6.50657
        6.28081        6.06885        5.90686        5.76295        5.62879        5.50212        5.37897        5.25417        5.12392        4.99257
        4.91817        5.00039        5.12699        5.25806        5.39149        5.52969        5.67436        5.82468        5.97738        6.13107
        6.29879        6.49575        6.65932        6.72910        6.68071        6.69772        6.72001        6.72065        6.68384        6.62284
        6.53533        6.37366        6.11217        5.84507        5.65972        5.53292        5.42737        5.33605        5.25212        5.16797
        5.07951        5.00200        4.99349        5.05738        5.14337        5.23741        5.34006        5.45390        5.58015        5.71762
        5.86452        6.04775        6.29879        6.51895        6.63872        6.57334        6.59991        6.62243        6.64889        6.62284
        6.56255        6.48640        6.39437        6.24323        5.98155        5.70170        5.45683        5.31965        5.24028        5.18822
        5.15475        5.13042        5.10116        5.06122        5.03317        5.03936        5.07644        5.13735        5.22030        5.32618
        5.45655        5.62200        5.86452        6.13107        6.36470        6.50971        6.43557        6.46975        6.46930        6.50657
        6.53533        6.48640        6.41048        6.32685        6.23726        6.11124        5.86942        5.59312        5.33421        5.15454
        5.09975        5.10128        5.13633        5.17760        5.17047        5.09262        5.00046        4.94656        4.94717        4.99325
        5.08052        5.22729        5.45655        5.71762        5.97738        6.20405        6.35620        6.27468        6.31922        6.30397
        6.28081        6.37366        6.39437        6.32685        6.24131        6.15606        6.07313        5.97275        5.76980        5.50822
        5.26074        5.08322        5.06510        5.13149        5.22176        5.27771        5.20675        5.07051        4.93262        4.83279
        4.80745        4.88016        5.08052        5.32618        5.58015        5.82468        6.03467        6.18409        6.09848        6.15258
        6.14266        6.06885        6.11217        6.24323        6.23726        6.15606        6.06607        5.98405        5.91106        5.83232
        5.67926        5.44565        5.22785        5.11215        5.15607        5.25821        5.35628        5.32927        5.19391        5.03834
        4.88596        4.77524        4.80745        4.99325        5.22030        5.45390        5.67436        5.86176        6.00252        5.91689
        5.97796        5.98066        5.90686        5.84507        5.98155        6.11124        6.07313        5.98405        5.89415        5.81949
        5.75924        5.69977        5.59455        5.40637        5.24594        5.22442        5.30833        5.40908        5.43232        5.31971
        5.17863        5.02611        4.88596        4.83279        4.94717        5.13735        5.34006        5.52969        5.69163        5.82041
        5.73667        5.80299        5.81988        5.76295        5.65972        5.70170        5.86942        5.97275        5.91106        5.81949
        5.73362        5.66976        5.62427        5.58278        5.51585        5.39362        5.32512        5.37209        5.45408        5.49275
        5.42326        5.31320        5.17863        5.03834        4.93262        4.94656        5.07644        5.23741        5.39149        5.52715
        5.64253        5.56023        5.63120        5.66296        5.62879        5.53292        5.45683        5.59312        5.76980        5.83232
        5.75924        5.66976        5.59136        5.54084        5.51084        5.48543        5.44785        5.40437        5.42363        5.48106
        5.51285        5.49071        5.42326        5.31971        5.19391        5.07051        5.00046        5.03936        5.14337        5.25806
        5.36780        5.46961        5.38686        5.46246        5.50967        5.50212        5.42737        5.31965        5.33421        5.50822
        5.67926        5.69977        5.62427        5.54084        5.47309        5.43741        5.42153        5.40817        5.39536        5.41521
        5.46527        5.50348        5.51285        5.49275        5.43232        5.32927        5.20675        5.09262        5.03317        5.05738
        5.12699        5.21120        5.29997        5.21454        5.29467        5.35740        5.37897        5.33605        5.24028        5.15454
        5.26074        5.44565        5.59455        5.58278        5.51084        5.43741        5.38377        5.36310        5.35583        5.34688
        5.36378        5.41714        5.46527        5.48106        5.45408        5.40908        5.35628        5.27771        5.17047        5.06122
        4.99349        5.00039        5.05561        5.13137        5.04204        5.12566        5.20293        5.25417        5.25212        5.18822
        5.09975        5.08322        5.22785        5.40637        5.51585        5.48543        5.42153        5.36310        5.32918        5.32125
        5.30843        5.30735        5.36378        5.41521        5.42363        5.37209        5.30833        5.25821        5.22176        5.17760
        5.10116        5.00200        4.91817        4.90854        4.96397        4.87510        4.95633        5.04504        5.12392        5.16797
        5.15475        5.10128        5.06510        5.11215        5.24594        5.39362        5.44785        5.40817        5.35583        5.32125
        5.31488        5.31018        5.30843        5.34688        5.39536        5.40437        5.32512        5.22442        5.15607        5.13149
        5.13633        5.13042        5.07951        4.99257        4.89611        4.83075        4.87510        4.83075        4.89611        4.99257
        5.07951        5.13042        5.13633        5.13149        5.15607        5.22442        5.32512        5.40437        5.39536        5.34688
        5.30843        5.31018        5.31488        5.32125        5.35583        5.40817        5.44785        5.39362        5.24594        5.11215
        5.06510        5.10128        5.15475        5.16797        5.12392        5.04504        4.95633        5.04204        4.96397        4.90854
        4.91817        5.00200        5.10116        5.17760        5.22176        5.25821        5.30833        5.37209        5.42363        5.41521
        5.36378        5.30735        5.30843        5.32125        5.32918        5.36310        5.42153        5.48543        5.51585        5.40637
        5.22785        5.08322        5.09975        5.18822        5.25212        5.25417        5.20293        5.12566        5.21454        5.13137
        5.05561        5.00039        4.99349        5.06122        5.17047        5.27771        5.35628        5.40908        5.45408        5.48106
        5.46527        5.41714        5.36378        5.34688        5.35583        5.36310        5.38377        5.43741        5.51084        5.58278
        5.59455        5.44565        5.26074        5.15454        5.24028        5.33605        5.37897        5.35740        5.29467        5.38686
        5.29997        5.21120        5.12699        5.05738        5.03317        5.09262        5.20675        5.32927        5.43232        5.49275
        5.51285        5.50348        5.46527        5.41521        5.39536        5.40817        5.42153        5.43741        5.47309        5.54084
        5.62427        5.69977        5.67926        5.50822        5.33421        5.31965        5.42737        5.50212        5.50967        5.46246
        5.56023        5.46961        5.36780        5.25806        5.14337        5.03936        5.00046        5.07051        5.19391        5.31971
        5.42326        5.49071        5.51285        5.48106        5.42363        5.40437        5.44785        5.48543        5.51084        5.54084
        5.59136        5.66976        5.75924        5.83232        5.76980        5.59312        5.45683        5.53292        5.62879        5.66296
        5.63120        5.73667        5.64253        5.52715        5.39149        5.23741        5.07644        4.94656        4.93262        5.03834
        5.17863        5.31320        5.42326        5.49275        5.45408        5.37209        5.32512        5.39362        5.51585        5.58278
        5.62427        5.66976        5.73362        5.81949        5.91106        5.97275        5.86942        5.70170        5.65972        5.76295
        5.81988        5.80299        5.91689        5.82041        5.69163        5.52969        5.34006        5.13735        4.94717        4.83279
        4.88596        5.02611        5.17863        5.31971        5.43232        5.40908        5.30833        5.22442        5.24594        5.40637
        5.59455        5.69977        5.75924        5.81949        5.89415        5.98405        6.07313        6.11124        5.98155        5.84507
        5.90686        5.98066        5.97796        6.09848        6.00252        5.86176        5.67436        5.45390        5.22030        4.99325
        4.80745        4.77524        4.88596        5.03834        5.19391        5.32927        5.35628        5.25821        5.15607        5.11215
        5.22785        5.44565        5.67926        5.83232        5.91106        5.98405        6.06607        6.15606        6.23726        6.24323
        6.11217        6.06885        6.14266        6.15258        6.27468        6.18409        6.03467        5.82468        5.58015        5.32618
        5.08052        4.88016        4.80745        4.83279        4.93262        5.07051        5.20675        5.27771        5.22176        5.13149
        5.06510        5.08322        5.26074        5.50822        5.76980        5.97275        6.07313        6.15606        6.24131        6.32685
        6.39437        6.37366        6.28081        6.30397        6.31922        6.43557        6.35620        6.20405        5.97738        5.71762
        5.45655        5.22729        5.08052        4.99325        4.94717        4.94656        5.00046        5.09262        5.17047        5.17760
        5.13633        5.10128        5.09975        5.15454        5.33421        5.59312        5.86942        6.11124        6.23726        6.32685
        6.41048        6.48640        6.53533        6.50657        6.46930        6.46975        6.57334        6.50971        6.36470        6.13107
        5.86452        5.62200        5.45655        5.32618        5.22030        5.13735        5.07644        5.03936        5.03317        5.06122
        5.10116        5.13042        5.15475        5.18822        5.24028        5.31965        5.45683        5.70170        5.98155        6.24323
        6.39437        6.48640        6.56255        6.62284        6.64889        6.62243        6.59991        6.68071        6.63872        6.51895
        6.29879        6.04775        5.86452        5.71762        5.58015        5.45390        5.34006        5.23741        5.14337        5.05738
        4.99349        5.00200        5.07951        5.16797        5.25212        5.33605        5.42737        5.53292        5.65972        5.84507
        6.11217        6.37366        6.53533        6.62284        6.68384        6.72065        6.72001        6.69772        6.74105        6.72910
        6.65932        6.49575        6.29879        6.13107        5.97738        5.82468        5.67436        5.52969        5.39149        5.25806
        5.12699        5.00039        4.91817        4.99257        5.12392        5.25417        5.37897        5.50212        5.62879        5.76295
        5.90686        6.06885        6.28081        6.50657        6.64889        6.72065        6.75693        6.76276        6.74507        6.75054
        6.76202        6.74463        6.65932        6.51895        6.36470        6.20405        6.03467        5.86176        5.69163        5.52715
        5.36780        5.21120        5.05561        4.90854        4.89611        5.04504        5.20293        5.35740        5.50967        5.66296
        5.81988        5.98066        6.14266        6.30397        6.46930        6.62243        6.72001        6.76276        6.77482        6.76497
        6.86049        6.76223        6.76202        6.72910        6.63872        6.50971        6.35620        6.18409        6.00252        5.82041
        5.64253        5.46961        5.29997        5.13137        4.96397        4.83075        4.95633        5.12566        5.29467        5.46246
        5.63120        5.80299        5.97796        6.15258        6.31922        6.46975        6.59991        6.69772        6.74507        6.76497
        6.86652        6.86049        6.86652        6.76497        6.74507        6.69772        6.59991        6.46975        6.31922        6.15258
        5.97796        5.80299        5.63120        5.46246        5.29467        5.12566        4.95633        4.83075        4.96397        5.13137
        5.29997        5.46961        5.64253        5.82041        6.00252        6.18409        6.35620        6.50971        6.63872        6.72910
        6.76202        6.76223        6.86652        6.98291        6.86740        6.72965        6.69989        6.62779        6.51776        6.38455
        6.23178        6.06506        5.89294        5.72102        5.55084        5.38127        5.21029        5.03712        4.86944        4.88742
        5.05284        5.22409        5.39699        5.57304        5.75408        5.94028        6.12835        6.31046        6.47554        6.61415
        6.71669        6.76672        6.76578        6.76497        6.86740        6.87685        6.76647        6.71650        6.65269        6.54868
        6.41911        6.27354        6.11483        5.94984        5.78447        5.62079        5.45780        5.29306        5.12462        4.95435
        4.84030        4.97830        5.14367        5.31172        5.48279        5.65904        5.84161        6.02887        6.21494        6.38977
        6.54307        6.66707        6.74697        6.76795        6.74507        6.72965        6.76647        6.76868        6.73868        6.68527
        6.59276        6.44685        6.27518        6.11109        5.95330        5.80041        5.65209        5.50608        5.35866        5.20630
        5.04826        4.90028        4.92490        5.07032        5.22469        5.38210        5.54428        5.71305        5.88802        6.06508
        6.23668        6.39636        6.54394        6.66960        6.73710        6.69772        6.69989        6.71650        6.73868        6.72043
        6.67423        6.60432        6.49371        6.28815        6.06257        5.89054        5.74914        5.62157        5.50209        5.38481
        5.26347        5.13399        5.00192        4.93163        5.01550        5.14083        5.27251        5.40867        5.55107        5.70031
        5.85425        6.00863        6.16125        6.32064        6.49806        6.64164        6.59991        6.62779        6.65269        6.68527
        6.67423        6.62724        6.56162        6.47893        6.35582        6.12231        5.85668        5.65831        5.53413        5.43496
        5.34982        5.27041        5.18802        5.09799        5.01673        5.00542        5.06823        5.15526        5.25234        5.35909
        5.47697        5.60609        5.74456        5.89029        6.05624        6.28386        6.49202        6.46975        6.51776        6.54868
        6.59276        6.60432        6.56162        6.49570        6.41809        6.33016        6.21094        5.98527        5.71317        5.46969
        5.33681        5.26457        5.21862        5.18878        5.16287        5.12438        5.07182        5.03721        5.04483        5.08643
        5.15220        5.23926        5.34753        5.47695        5.62934        5.84420        6.10470        6.33237        6.31922        6.38455
        6.41911        6.44685        6.49371        6.47893        6.41809        6.34067        6.25779        6.17216        6.06845        5.86938
        5.60533        5.35403        5.18909        5.14447        5.15143        5.18564        5.21520        5.18558        5.09333        4.99815
        4.94885        4.95643        5.00792        5.09696        5.23275        5.44243        5.69517        5.94975        6.17154        6.15258
        6.23178        6.27354        6.27518        6.28815        6.35582        6.33016        6.25779        6.17355        6.09083        6.01281
        5.92833        5.76867        5.52310        5.28680        5.13379        5.13001        5.19483        5.27454        5.30246        5.20861
        5.06801        4.93042        4.83493        4.81641        4.88594        5.07233        5.31125        5.55973        5.79954        6.00560
        5.97796        6.06506        6.11483        6.11109        6.06257        6.12231        6.21094        6.17216        6.09083        6.00366
        5.92572        5.85915        5.79406        5.67939        5.46545        5.26424        5.17756        5.22714        5.31975        5.39566
        5.33194        5.19402        5.03940        4.88957        4.78273        4.81197        4.98843        5.20938        5.43775        5.65397
        5.83835        5.80299        5.89294        5.94984        5.95330        5.89054        5.85668        5.98527        6.06845        6.01281
        5.92572        5.83944        5.77041        5.71819        5.67198        5.59833        5.43459        5.29816        5.29461        5.37174
        5.45472        5.43416        5.32142        5.18245        5.03295        4.89854        4.84696        4.95043        5.13236        5.32928
        5.51492        5.67450        5.63120        5.72102        5.78447        5.80041        5.74914        5.65831        5.71317        5.86938
        5.92833        5.85915        5.77041        5.68885        5.63228        5.59629        5.56787        5.52530        5.43177        5.38464
        5.42909        5.49150        5.49620        5.42572        5.31839        5.18783        5.05274        4.95182        4.95954        5.07825
        5.23188        5.38174        5.51547        5.46246        5.55084        5.62079        5.65209        5.62157        5.53413        5.46969
        5.60533        5.76867        5.79406        5.71819        5.63228        5.55934        5.51790        5.49837        5.48477        5.46293
        5.43797        5.45858        5.50010        5.51661        5.49299        5.42948        5.32993        5.20825        5.08936        5.01937
        5.04769        5.14190        5.25166        5.35975        5.29467        5.38127        5.45780        5.50608        5.50209        5.43496
        5.33681        5.35403        5.52310        5.67939        5.67198        5.59629        5.51790        5.45782        5.43290        5.42683
        5.42045        5.41152        5.42924        5.47066        5.50083        5.50223        5.48039        5.43490        5.33764        5.21877
        5.10731        5.04406        5.05830        5.12193        5.20462        5.12566        5.21029        5.29306        5.35866        5.38481
        5.34982        5.26457        5.18909        5.28680        5.46545        5.59833        5.56787        5.49837        5.43290        5.39046
        5.38033        5.37648        5.36282        5.36996        5.41368        5.45072        5.44500        5.40173        5.35396        5.31085
        5.25463        5.16515        5.06413        4.99551        4.99607        5.04894        4.95633        5.03712        5.12462        5.20630
        5.26347        5.27041        5.21862        5.14447        5.13379        5.26424        5.43459        5.52530        5.48477        5.42683
        5.38033        5.35783        5.34872        5.32230        5.30339        5.35120        5.39106        5.37334        5.30553        5.23891
        5.19354        5.16924        5.14502        5.08826        5.00115        4.92069        4.90456        4.83075        4.86944        4.95435
        5.04826        5.13399        5.18802        5.18878        5.15143        5.13001        5.17756        5.29816        5.43177        5.46293
        5.42045        5.37648        5.34872        5.33011        5.29885        5.28062        5.32760        5.37406        5.36193        5.26221
        5.15174        5.08331        5.06896        5.09134        5.10601        5.07194        4.99567        4.90456        4.96397        4.88742
        4.84030        4.90028        5.00192        5.09799        5.16287        5.18564        5.19483        5.22714        5.29461        5.38464
        5.43797        5.41152        5.36282        5.32230        5.29885        5.28086        5.28826        5.33593        5.39441        5.42608
        5.35240        5.19489        5.04869        5.00206        5.05553        5.12730        5.15651        5.12339        5.04894        5.13137
        5.05284        4.97830        4.92490        4.93163        5.01673        5.12438        5.21520        5.27454        5.31975        5.37174
        5.42909        5.45858        5.42924        5.36996        5.30339        5.28062        5.28826        5.30482        5.34961        5.41599
        5.48084        5.49489        5.37251        5.18955        5.03496        5.05893        5.16296        5.24058        5.25270        5.20462
        5.29997        5.22409        5.14367        5.07032        5.01550        5.00542        5.07182        5.18558        5.30246        5.39566
        5.45472        5.49150        5.50010        5.47066        5.41368        5.35120        5.32760        5.33593        5.34961        5.38058
        5.44138        5.51865        5.58679        5.57371        5.41690        5.22932        5.12132        5.21947        5.32729        5.37941
        5.35975        5.46961        5.39699        5.31172        5.22469        5.14083        5.06823        5.03721        5.09333        5.20861
        5.33194        5.43416        5.49620        5.51661        5.50083        5.45072        5.39106        5.37406        5.39441        5.41599
        5.44138        5.48601        5.55872        5.64351        5.71014        5.65861        5.48239        5.30748        5.30372        5.42290
        5.50670        5.51547        5.64253        5.57304        5.48279        5.38210        5.27251        5.15526        5.04483        4.99815
        5.06801        5.19402        5.32142        5.42572        5.49299        5.50223        5.44500        5.37334        5.36193        5.42608
        5.48084        5.51865        5.55872        5.61672        5.69882        5.78794        5.84532        5.74947        5.56884        5.43938
        5.53272        5.63857        5.67450        5.82041        5.75408        5.65904        5.54428        5.40867        5.25234        5.08643
        4.94885        4.93042        5.03940        5.18245        5.31839        5.42948        5.48039        5.40173        5.30553        5.26221
        5.35240        5.49489        5.58679        5.64351        5.69882        5.76883        5.85759        5.94720        5.98268        5.84845
        5.67783        5.66055        5.77725        5.83835        6.00252        5.94028        5.84161        5.71305        5.55107        5.35909
        5.15220        4.95643        4.83493        4.88957        5.03295        5.18783        5.32993        5.43490        5.35396        5.23891
        5.15174        5.19489        5.37251        5.57371        5.71014        5.78794        5.85759        5.93722        6.02928        6.11409
        6.11213        5.95797        5.82600        5.92264        6.00560        6.18409        6.12835        6.02887        5.88802        5.70031
        5.47697        5.23926        5.00792        4.81641        4.78273        4.89854        5.05274        5.20825        5.33764        5.31085
        5.19354        5.08331        5.04869        5.18955        5.41690        5.65861        5.84532        5.94720        6.02928        6.11520
        6.20623        6.27865        6.23321        6.08512        6.07755        6.17154        6.35620        6.31046        6.21494        6.06508
        5.85425        5.60609        5.34753        5.09696        4.88594        4.81197        4.84696        4.95182        5.08936        5.21877
        5.25463        5.16924        5.06896        5.00206        5.03496        5.22932        5.48239        5.74947        5.98268        6.11409
        6.20623        6.29422        6.37869        6.42936        6.35585        6.26959        6.33237        6.50971        6.47554        6.38977
        6.23668        6.00863        5.74456        5.47695        5.23275        5.07233        4.98843        4.95043        4.95954        5.01937
        5.10731        5.16515        5.14502        5.09134        5.05553        5.05893        5.12132        5.30748        5.56884        5.84845
        6.11213        6.27865        6.37869        6.46361        6.53495        6.55936        6.49654        6.49202        6.63872        6.61415
        6.54307        6.39636        6.16125        5.89029        5.62934        5.44243        5.31125        5.20938        5.13236        5.07825
        5.04769        5.04406        5.06413        5.08826        5.10601        5.12730        5.16296        5.21947        5.30372        5.43938
        5.67783        5.95797        6.23321        6.42936        6.53495        6.61060        6.66227        6.66724        6.64164        6.72910
        6.71669        6.66707        6.54394        6.32064        6.05624        5.84420        5.69517        5.55973        5.43775        5.32928
        5.23188        5.14190        5.05830        4.99551        5.00115        5.07194        5.15651        5.24058        5.32729        5.42290
        5.53272        5.66055        5.82600        6.08512        6.35585        6.55936        6.66227        6.72011        6.74627        6.73710
        6.76202        6.76672        6.74697        6.66960        6.49806        6.28386        6.10470        5.94975        5.79954        5.65397
        5.51492        5.38174        5.25166        5.12193        4.99607        4.92069        4.99567        5.12339        5.25270        5.37941
        5.50670        5.63857        5.77725        5.92264        6.07755        6.26959        6.49654        6.66724        6.74627        6.77433
        6.76795        6.76223        6.76578        6.76795        6.73710        6.64164        6.49202        6.33237        6.17154        6.00560
        5.83835        5.67450        5.51547        5.35975        5.20462        5.04894        4.90456        4.90456        5.04894        5.20462
        5.35975        5.51547        5.67450        5.83835        6.00560        6.17154        6.33237        6.49202        6.64164        6.73710
        6.76795        6.76578        6.75054        6.76497        6.77482        6.76276        6.72001        6.62243        6.46930        6.30397
        6.14266        5.98066        5.81988        5.66296        5.50967        5.35740        5.20293        5.04504        4.89611        4.90854
        5.05561        5.21120        5.36780        5.52715        5.69163        5.86176        6.03467        6.20405        6.36470        6.51895
        6.65932        6.74463        6.76202        6.76497        6.86740        6.87685        6.76647        6.71650        6.65269        6.54868