  BEGIN_INFO
       Fermi Energy:   7.023390000000000E+00
  END_INFO

  BEGIN_BLOCK_BANDGRID_3D
       THIS_FILE_WAS_GENERATED_BY_VASPKIT
  BEGIN_BANDGRID_3D_fermi
         6
         31       31       31
    0.00000000000000  0.00000000000000  0.00000000000000
    1.31125510200000  0.75705348600000  0.24785169200000
    -1.31125510200000  0.75705348600000  0.24785169200000
    0.00000000000000  -1.51410697200000  0.24785169200000
    BAND:          1
       6.97748000E+00
       6.86049000E+00
       6.75054000E+00
       6.74105000E+00
       6.68071000E+00
       6.57334000E+00
       6.43557000E+00
       6.27468000E+00
       6.09848000E+00
       5.91689000E+00
       5.73667000E+00
       5.56023000E+00
       5.38686000E+00
       5.21454000E+00
       5.04204000E+00
       4.87510000E+00
       4.87510000E+00
       5.04204000E+00
       5.21454000E+00
       5.38686000E+00
       5.56023000E+00
       5.73667000E+00
       5.91689000E+00
       6.09848000E+00
       6.27468000E+00
       6.43557000E+00
       6.57334000E+00
       6.68071000E+00
       6.74105000E+00
       6.75054000E+00
       6.86049000E+00
       6.86049000E+00
       6.86652000E+00
       6.76497000E+00
       6.74507000E+00
       6.69772000E+00
       6.59991000E+00
       6.46975000E+00
       6.31922000E+00
       6.15258000E+00
       5.97796000E+00
       5.80299000E+00
       5.63120000E+00
       5.46246000E+00
       5.29467000E+00
       5.12566000E+00
       4.95633000E+00
       4.83075000E+00
       4.96397000E+00
       5.13137000E+00
       5.29997000E+00
       5.46961000E+00
       5.64253000E+00
       5.82041000E+00
       6.00252000E+00
       6.18409000E+00
       6.35620000E+00
       6.50971000E+00
       6.63872000E+00
       6.72910000E+00
       6.76202000E+00
       6.76223000E+00
       6.75054000E+00
       6.76497000E+00
       6.77482000E+00
       6.76276000E+00
       6.72001000E+00
       6.62243000E+00
       6.46930000E+00
       6.30397000E+00
       6.14266000E+00
       5.98066000E+00
       5.81988000E+00
       5.66296000E+00
       5.50967000E+00
       5.35740000E+00
       5.20293000E+00
       5.04504000E+00
       4.89611000E+00
       4.90854000E+00
       5.05561000E+00
       5.21120000E+00
       5.36780000E+00
       5.52715000E+00
       5.69163000E+00
       5.86176000E+00
       6.03467000E+00
       6.20405000E+00
       6.36470000E+00
       6.51895000E+00
       6.65932000E+00
       6.74463000E+00
       6.76202000E+00
       6.74105000E+00
       6.74507000E+00
       6.76276000E+00
       6.75693000E+00
       6.72065000E+00
       6.64889000E+00
       6.50657000E+00
       6.28081000E+00
       6.06885000E+00
       5.90686000E+00
       5.76295000E+00
       5.62879000E+00
       5.50212000E+00
       5.37897000E+00
       5.25417000E+00
       5.12392000E+00
       4.99257000E+00
       4.91817000E+00
       5.00039000E+00
       5.12699000E+00
       5.25806000E+00
       5.39149000E+00
       5.52969000E+00
       5.67436000E+00
       5.82468000E+00
       5.97738000E+00
       6.13107000E+00
       6.29879000E+00
       6.49575000E+00
       6.65932000E+00
       6.72910000E+00
       6.68071000E+00
       6.69772000E+00
       6.72001000E+00
       6.72065000E+00
       6.68384000E+00
       6.62284000E+00
       6.53533000E+00
       6.37366000E+00
       6.11217000E+00
       5.84507000E+00
       5.65972000E+00
       5.53292000E+00
       5.42737000E+00
       5.33605000E+00
       5.25212000E+00
       5.16797000E+00
       5.07951000E+00
       5.00200000E+00
       4.99349000E+00
       5.05738000E+00
       5.14337000E+00
       5.23741000E+00
       5.34006000E+00
       5.45390000E+00
       5.58015000E+00
       5.71762000E+00
       5.86452000E+00
       6.04775000E+00
       6.29879000E+00
       6.51895000E+00
       6.63872000E+00
       6.57334000E+00
       6.59991000E+00
       6.62243000E+00
       6.64889000E+00
       6.62284000E+00
       6.56255000E+00
       6.48640000E+00
       6.39437000E+00
       6.24323000E+00
       5.98155000E+00
       5.70170000E+00
       5.45683000E+00
       5.31965000E+00
       5.24028000E+00
       5.18822000E+00
       5.15475000E+00
       5.13042000E+00
       5.10116000E+00
       5.06122000E+00
       5.03317000E+00
       5.03936000E+00
       5.07644000E+00
       5.13735000E+00
       5.22030000E+00
       5.32618000E+00
       5.45655000E+00
       5.62200000E+00
       5.86452000E+00
       6.13107000E+00
       6.36470000E+00
       6.50971000E+00
       6.43557000E+00
       6.46975000E+00
       6.46930000E+00
       6.50657000E+00
       6.53533000E+00
       6.48640000E+00
       6.41048000E+00
       6.32685000E+00
       6.23726000E+00
       6.11124000E+00
       5.86942000E+00
       5.59312000E+00
       5.33421000E+00
       5.15454000E+00
       5.09975000E+00
       5.10128000E+00
       5.13633000E+00
       5.17760000E+00
       5.17047000E+00
       5.09262000E+00
       5.00046000E+00
       4.94656000E+00
       4.94717000E+00
       4.99325000E+00
       5.08052000E+00
       5.22729000E+00
       5.45655000E+00
       5.71762000E+00
       5.97738000E+00
       6.20405000E+00
       6.35620000E+00
       6.27468000E+00
       6.31922000E+00
       6.30397000E+00
       6.28081000E+00
       6.37366000E+00
       6.39437000E+00
       6.32685000E+00
       6.24131000E+00
       6.15606000E+00
       6.07313000E+00
       5.97275000E+00
       5.76980000E+00
       5.50822000E+00
       5.26074000E+00
       5.08322000E+00
       5.06510000E+00
       5.13149000E+00
       5.22176000E+00
       5.27771000E+00
       5.20675000E+00
       5.07051000E+00
       4.93262000E+00
       4.83279000E+00
       4.80745000E+00
       4.88016000E+00
       5.08052000E+00
       5.32618000E+00
       5.58015000E+00
       5.82468000E+00
       6.03467000E+00
       6.18409000E+00
       6.09848000E+00
       6.15258000E+00
       6.14266000E+00
       6.06885000E+00
       6.11217000E+00
       6.24323000E+00
       6.23726000E+00
       6.15606000E+00
       6.06607000E+00
       5.98405000E+00
       5.91106000E+00
       5.83232000E+00
       5.67926000E+00
       5.44565000E+00
       5.22785000E+00
       5.11215000E+00
       5.15607000E+00
       5.25821000E+00
       5.35628000E+00
       5.32927000E+00
       5.19391000E+00
       5.03834000E+00
       4.88596000E+00
       4.77524000E+00
       4.80745000E+00
       4.99325000E+00
       5.22030000E+00
       5.45390000E+00
       5.67436000E+00
       5.86176000E+00
       6.00252000E+00
       5.91689000E+00
       5.97796000E+00
       5.98066000E+00
       5.90686000E+00
       5.84507000E+00
       5.98155000E+00
       6.11124000E+00
       6.07313000E+00
       5.98405000E+00
       5.89415000E+00
       5.81949000E+00
       5.75924000E+00
       5.69977000E+00
       5.59455000E+00
       5.40637000E+00
       5.24594000E+00
       5.22442000E+00
       5.30833000E+00
       5.40908000E+00
       5.43232000E+00
       5.31971000E+00
       5.17863000E+00
       5.02611000E+00
       4.88596000E+00
       4.83279000E+00
       4.94717000E+00
       5.13735000E+00
       5.34006000E+00
       5.52969000E+00
       5.69163000E+00
       5.82041000E+00
       5.73667000E+00
       5.80299000E+00
       5.81988000E+00
       5.76295000E+00
       5.65972000E+00
       5.70170000E+00
       5.86942000E+00
       5.97275000E+00
       5.91106000E+00
       5.81949000E+00
       5.73362000E+00
       5.66976000E+00
       5.62427000E+00
       5.58278000E+00
       5.51585000E+00
       5.39362000E+00
       5.32512000E+00
       5.37209000E+00
       5.45408000E+00
       5.49275000E+00
       5.42326000E+00
       5.31320000E+00
       5.17863000E+00
       5.03834000E+00
       4.93262000E+00
       4.94656000E+00
       5.07644000E+00
       5.23741000E+00
       5.39149000E+00
       5.52715000E+00
       5.64253000E+00
       5.56023000E+00
       5.63120000E+00
       5.66296000E+00
       5.62879000E+00
       5.53292000E+00
       5.45683000E+00
       5.59312000E+00
       5.76980000E+00
       5.83232000E+00
       5.75924000E+00
       5.66976000E+00
       5.59136000E+00
       5.54084000E+00
       5.51084000E+00
       5.48543000E+00
       5.44785000E+00
       5.40437000E+00
       5.42363000E+00
       5.48106000E+00
       5.51285000E+00
       5.49071000E+00
       5.42326000E+00
       5.31971000E+00
       5.19391000E+00
       5.07051000E+00
       5.00046000E+00
       5.03936000E+00
       5.14337000E+00
       5.25806000E+00
       5.36780000E+00
       5.46961000E+00
       5.38686000E+00
       5.46246000E+00
       5.50967000E+00
       5.50212000E+00
       5.42737000E+00
       5.31965000E+00
       5.33421000E+00
       5.50822000E+00
       5.67926000E+00
       5.69977000E+00
       5.62427000E+00
       5.54084000E+00
       5.47309000E+00
       5.43741000E+00
       5.42153000E+00
       5.40817000E+00
       5.39536000E+00
       5.41521000E+00
       5.46527000E+00
       5.50348000E+00
       5.51285000E+00
       5.49275000E+00
       5.43232000E+00
       5.32927000E+00
       5.20675000E+00
       5.09262000E+00
       5.03317000E+00
       5.05738000E+00
       5.12699000E+00
       5.21120000E+00
       5.29997000E+00
       5.21454000E+00
       5.29467000E+00
       5.35740000E+00
       5.37897000E+00
       5.33605000E+00
       5.24028000E+00
       5.15454000E+00
       5.26074000E+00
       5.44565000E+00
       5.59455000E+00
       5.58278000E+00
       5.51084000E+00
       5.43741000E+00
       5.38377000E+00
       5.36310000E+00
       5.35583000E+00
       5.34688000E+00
       5.36378000E+00
       5.41714000E+00
       5.46527000E+00
       5.48106000E+00
       5.45408000E+00
       5.40908000E+00
       5.35628000E+00
       5.27771000E+00
       5.17047000E+00
       5.06122000E+00
       4.99349000E+00
       5.00039000E+00
       5.05561000E+00
       5.13137000E+00
       5.04204000E+00
       5.12566000E+00
       5.20293000E+00
       5.25417000E+00
       5.25212000E+00
       5.18822000E+00
       5.09975000E+00
       5.08322000E+00
       5.22785000E+00
       5.40637000E+00
       5.51585000E+00
       5.48543000E+00
       5.42153000E+00
       5.36310000E+00
       5.32918000E+00
       5.32125000E+00
       5.30843000E+00
       5.30735000E+00
       5.36378000E+00
       5.41521000E+00
       5.42363000E+00
       5.37209000E+00
       5.30833000E+00
       5.25821000E+00
       5.22176000E+00
       5.17760000E+00
       5.10116000E+00
       5.00200000E+00
       4.91817000E+00
       4.90854000E+00
       4.96397000E+00
       4.87510000E+00
       4.95633000E+00
       5.04504000E+00
       5.12392000E+00
       5.16797000E+00
       5.15475000E+00
       5.10128000E+00
       5.06510000E+00
       5.11215000E+00
       5.24594000E+00
       5.39362000E+00
       5.44785000E+00
       5.40817000E+00
       5.35583000E+00
       5.32125000E+00
       5.31488000E+00
       5.31018000E+00
       5.30843000E+00
       5.34688000E+00
       5.39536000E+00
       5.40437000E+00
       5.32512000E+00
       5.22442000E+00
       5.15607000E+00
       5.13149000E+00
       5.13633000E+00
       5.13042000E+00
       5.07951000E+00
       4.99257000E+00
       4.89611000E+00
       4.83075000E+00
       4.87510000E+00
       4.83075000E+00
       4.89611000E+00
       4.99257000E+00
       5.07951000E+00
       5.13042000E+00
       5.13633000E+00
       5.13149000E+00
       5.15607000E+00
       5.22442000E+00
       5.32512000E+00
       5.40437000E+00
       5.39536000E+00
       5.34688000E+00
       5.30843000E+00
       5.31018000E+00
       5.31488000E+00
       5.32125000E+00
       5.35583000E+00
       5.40817000E+00
       5.44785000E+00
       5.39362000E+00
       5.24594000E+00
       5.11215000E+00
       5.06510000E+00
       5.10128000E+00
       5.15475000E+00
       5.16797000E+00
       5.12392000E+00
       5.04504000E+00
       4.95633000E+00
       5.04204000E+00
       4.96397000E+00
       4.90854000E+00
       4.91817000E+00
       5.00200000E+00
       5.10116000E+00
       5.17760000E+00
       5.22176000E+00
       5.25821000E+00
       5.30833000E+00
       5.37209000E+00
       5.42363000E+00
       5.41521000E+00
       5.36378000E+00
       5.30735000E+00
       5.30843000E+00
       5.32125000E+00
       5.32918000E+00
       5.36310000E+00
       5.42153000E+00
       5.48543000E+00
       5.51585000E+00
       5.40637000E+00
       5.22785000E+00
       5.08322000E+00
       5.09975000E+00
       5.18822000E+00
       5.25212000E+00
       5.25417000E+00
       5.20293000E+00
       5.12566000E+00
       5.21454000E+00
       5.13137000E+00
       5.05561000E+00
       5.00039000E+00
       4.99349000E+00
       5.06122000E+00
       5.17047000E+00
       5.27771000E+00
       5.35628000E+00
       5.40908000E+00
       5.45408000E+00
       5.48106000E+00
       5.46527000E+00
       5.41714000E+00
       5.36378000E+00
       5.34688000E+00
       5.35583000E+00
       5.36310000E+00
       5.38377000E+00
       5.43741000E+00
       5.51084000E+00
       5.58278000E+00
       5.59455000E+00
       5.44565000E+00
       5.26074000E+00
       5.15454000E+00
       5.24028000E+00
       5.33605000E+00
       5.37897000E+00
       5.35740000E+00
       5.29467000E+00
       5.38686000E+00
       5.29997000E+00
       5.21120000E+00
       5.12699000E+00
       5.05738000E+00
       5.03317000E+00
       5.09262000E+00
       5.20675000E+00
       5.32927000E+00
       5.43232000E+00
       5.49275000E+00
       5.51285000E+00
       5.50348000E+00
       5.46527000E+00
       5.41521000E+00
       5.39536000E+00
       5.40817000E+00
       5.42153000E+00
       5.43741000E+00
       5.47309000E+00
       5.54084000E+00
       5.62427000E+00
       5.69977000E+00
       5.67926000E+00
       5.50822000E+00
       5.33421000E+00
       5.31965000E+00
       5.42737000E+00
       5.50212000E+00
       5.50967000E+00
       5.46246000E+00
       5.56023000E+00
       5.46961000E+00
       5.36780000E+00
       5.25806000E+00
       5.14337000E+00
       5.03936000E+00
       5.00046000E+00
       5.07051000E+00
       5.19391000E+00
       5.31971000E+00
       5.42326000E+00
       5.49071000E+00
       5.51285000E+00
       5.48106000E+00
       5.42363000E+00
       5.40437000E+00
       5.44785000E+00
       5.48543000E+00
       5.51084000E+00
       5.54084000E+00
       5.59136000E+00
       5.66976000E+00
       5.75924000E+00
       5.83232000E+00
       5.76980000E+00
       5.59312000E+00
       5.45683000E+00
       5.53292000E+00
       5.62879000E+00
       5.66296000E+00
       5.63120000E+00
       5.73667000E+00
       5.64253000E+00
       5.52715000E+00
       5.39149000E+00
       5.23741000E+00
       5.07644000E+00
       4.94656000E+00
       4.93262000E+00
       5.03834000E+00
       5.17863000E+00
       5.31320000E+00
       5.42326000E+00
       5.49275000E+00
       5.45408000E+00
       5.37209000E+00
       5.32512000E+00
       5.39362000E+00
       5.51585000E+00
       5.58278000E+00
       5.62427000E+00
       5.66976000E+00
       5.73362000E+00
       5.81949000E+00
       5.91106000E+00
       5.97275000E+00
       5.86942000E+00
       5.70170000E+00
       5.65972000E+00
       5.76295000E+00
       5.81988000E+00
       5.80299000E+00
       5.91689000E+00
       5.82041000E+00
       5.69163000E+00
       5.52969000E+00
       5.34006000E+00
       5.13735000E+00
       4.94717000E+00
       4.83279000E+00
       4.88596000E+00
       5.02611000E+00
       5.17863000E+00
       5.31971000E+00
       5.43232000E+00
       5.40908000E+00
       5.30833000E+00
       5.22442000E+00
       5.24594000E+00
       5.40637000E+00
       5.59455000E+00
       5.69977000E+00
       5.75924000E+00
       5.81949000E+00
       5.89415000E+00
       5.98405000E+00
       6.07313000E+00
       6.11124000E+00
       5.98155000E+00
       5.84507000E+00
       5.90686000E+00
       5.98066000E+00
       5.97796000E+00
       6.09848000E+00
       6.00252000E+00
       5.86176000E+00
       5.67436000E+00
       5.45390000E+00
       5.22030000E+00
       4.99325000E+00
       4.80745000E+00
       4.77524000E+00
       4.88596000E+00
       5.03834000E+00
       5.19391000E+00
       5.32927000E+00
       5.35628000E+00
       5.25821000E+00
       5.15607000E+00
       5.11215000E+00
       5.22785000E+00
       5.44565000E+00
       5.67926000E+00
       5.83232000E+00
       5.91106000E+00
       5.98405000E+00
       6.06607000E+00
       6.15606000E+00
       6.23726000E+00
       6.24323000E+00
       6.11217000E+00
       6.06885000E+00
       6.14266000E+00
       6.15258000E+00
       6.27468000E+00
       6.18409000E+00
       6.03467000E+00
       5.82468000E+00
       5.58015000E+00
       5.32618000E+00
       5.08052000E+00
       4.88016000E+00
       4.80745000E+00
       4.83279000E+00
       4.93262000E+00
       5.07051000E+00
       5.20675000E+00
       5.27771000E+00
       5.22176000E+00
       5.13149000E+00
       5.06510000E+00
       5.08322000E+00
       5.26074000E+00
       5.50822000E+00
       5.76980000E+00
       5.97275000E+00
       6.07313000E+00
       6.15606000E+00
       6.24131000E+00
       6.32685000E+00
       6.39437000E+00
       6.37366000E+00
       6.28081000E+00
       6.30397000E+00
       6.31922000E+00
       6.43557000E+00
       6.35620000E+00
       6.20405000E+00
       5.97738000E+00
       5.71762000E+00
       5.45655000E+00
       5.22729000E+00
       5.08052000E+00
       4.99325000E+00
       4.94717000E+00
       4.94656000E+00
       5.00046000E+00
       5.09262000E+00
       5.17047000E+00
       5.17760000E+00
       5.13633000E+00
       5.10128000E+00
       5.09975000E+00
       5.15454000E+00
       5.33421000E+00
       5.59312000E+00
       5.86942000E+00
       6.11124000E+00
       6.23726000E+00
       6.32685000E+00
       6.41048000E+00
       6.48640000E+00
       6.53533000E+00
       6.50657000E+00
       6.46930000E+00
       6.46975000E+00
       6.57334000E+00
       6.50971000E+00
       6.36470000E+00
       6.13107000E+00
       5.86452000E+00
       5.62200000E+00
       5.45655000E+00
       5.32618000E+00
       5.22030000E+00
       5.13735000E+00
       5.07644000E+00
       5.03936000E+00
       5.03317000E+00
       5.06122000E+00
       5.10116000E+00
       5.13042000E+00
       5.15475000E+00
       5.18822000E+00
       5.24028000E+00
       5.31965000E+00
       5.45683000E+00
       5.70170000E+00
       5.98155000E+00
       6.24323000E+00
       6.39437000E+00
       6.48640000E+00
       6.56255000E+00
       6.62284000E+00
       6.64889000E+00
       6.62243000E+00
       6.59991000E+00
       6.68071000E+00
       6.63872000E+00
       6.51895000E+00
       6.29879000E+00
       6.04775000E+00
       5.86452000E+00
       5.71762000E+00
       5.58015000E+00
       5.45390000E+00
       5.34006000E+00
       5.23741000E+00
       5.14337000E+00
       5.05738000E+00
       4.99349000E+00
       5.00200000E+00
       5.07951000E+00
       5.16797000E+00
       5.25212000E+00
       5.33605000E+00
       5.42737000E+00
       5.53292000E+00
       5.65972000E+00
       5.84507000E+00
       6.11217000E+00
       6.37366000E+00
       6.53533000E+00
       6.62284000E+00
       6.68384000E+00
       6.72065000E+00
       6.72001000E+00
       6.69772000E+00
       6.74105000E+00
       6.72910000E+00
       6.65932000E+00
       6.49575000E+00
       6.29879000E+00
       6.13107000E+00
       5.97738000E+00
       5.82468000E+00
       5.67436000E+00
       5.52969000E+00
       5.39149000E+00
       5.25806000E+00
       5.12699000E+00
       5.00039000E+00
       4.91817000E+00
       4.99257000E+00
       5.12392000E+00
       5.25417000E+00
       5.37897000E+00
       5.50212000E+00
       5.62879000E+00
       5.76295000E+00
       5.90686000E+00
       6.06885000E+00
       6.28081000E+00
       6.50657000E+00
       6.64889000E+00
       6.72065000E+00
       6.75693000E+00
       6.76276000E+00
       6.74507000E+00
       6.75054000E+00
       6.76202000E+00
       6.74463000E+00
       6.65932000E+00
       6.51895000E+00
       6.36470000E+00
       6.20405000E+00
       6.03467000E+00
       5.86176000E+00
       5.69163000E+00
       5.52715000E+00
       5.36780000E+00
       5.21120000E+00
       5.05561000E+00
       4.90854000E+00
       4.89611000E+00
       5.04504000E+00
       5.20293000E+00
       5.35740000E+00
       5.50967000E+00
       5.66296000E+00
       5.81988000E+00
       5.98066000E+00
       6.14266000E+00
       6.30397000E+00
       6.46930000E+00
       6.62243000E+00
       6.72001000E+00
       6.76276000E+00
       6.77482000E+00
       6.76497000E+00
       6.86049000E+00
       6.76223000E+00
       6.76202000E+00
       6.72910000E+00
       6.63872000E+00
       6.50971000E+00
       6.35620000E+00
       6.18409000E+00
       6.00252000E+00
       5.82041000E+00
       5.64253000E+00
       5.46961000E+00
       5.29997000E+00
       5.13137000E+00
       4.96397000E+00
       4.83075000E+00
       4.95633000E+00
       5.12566000E+00
       5.29467000E+00
       5.46246000E+00
       5.63120000E+00
       5.80299000E+00
       5.97796000E+00
       6.15258000E+00
       6.31922000E+00
       6.46975000E+00
       6.59991000E+00
       6.69772000E+00
       6.74507000E+00
       6.76497000E+00
       6.86652000E+00
       6.86049000E+00
       6.86652000E+00
       6.76497000E+00
       6.74507000E+00
       6.69772000E+00
       6.59991000E+00
       6.46975000E+00
       6.31922000E+00
       6.15258000E+00
       5.97796000E+00
       5.80299000E+00
       5.63120000E+00
       5.46246000E+00
       5.29467000E+00
       5.12566000E+00
       4.95633000E+00
       4.83075000E+00
       4.96397000E+00
       5.13137000E+00
       5.29997000E+00
       5.46961000E+00
       5.64253000E+00
       5.82041000E+00
       6.00252000E+00
       6.18409000E+00
       6.35620000E+00
       6.50971000E+00
       6.63872000E+00
       6.72910000E+00
       6.76202000E+00
       6.76223000E+00
       6.86652000E+00
       6.98291000E+00
       6.86740000E+00
       6.72965000E+00
       6.69989000E+00
       6.62779000E+00
       6.51776000E+00
       6.38455000E+00
       6.23178000E+00
       6.06506000E+00
       5.89294000E+00
       5.72102000E+00
       5.55084000E+00
       5.38127000E+00
       5.21029000E+00
       5.03712000E+00
       4.86944000E+00
       4.88742000E+00
       5.05284000E+00
       5.22409000E+00
       5.39699000E+00
       5.57304000E+00
       5.75408000E+00
       5.94028000E+00
       6.12835000E+00
       6.31046000E+00
       6.47554000E+00
       6.61415000E+00
       6.71669000E+00
       6.76672000E+00
       6.76578000E+00
       6.76497000E+00
       6.86740000E+00
       6.87685000E+00
       6.76647000E+00
       6.71650000E+00
       6.65269000E+00
       6.54868000E+00
       6.41911000E+00
       6.27354000E+00
       6.11483000E+00
       5.94984000E+00
       5.78447000E+00
       5.62079000E+00
       5.45780000E+00
       5.29306000E+00
       5.12462000E+00
       4.95435000E+00
       4.84030000E+00
       4.97830000E+00
       5.14367000E+00
       5.31172000E+00
       5.48279000E+00
       5.65904000E+00
       5.84161000E+00
       6.02887000E+00
       6.21494000E+00
       6.38977000E+00
       6.54307000E+00
       6.66707000E+00
       6.74697000E+00
       6.76795000E+00
       6.74507000E+00
       6.72965000E+00
       6.76647000E+00
       6.76868000E+00
       6.73868000E+00
       6.68527000E+00
       6.59276000E+00
       6.44685000E+00
       6.27518000E+00
       6.11109000E+00
       5.95330000E+00
       5.80041000E+00
       5.65209000E+00
       5.50608000E+00
       5.35866000E+00
       5.20630000E+00
       5.04826000E+00
       4.90028000E+00
       4.92490000E+00
       5.07032000E+00
       5.22469000E+00
       5.38210000E+00
       5.54428000E+00
       5.71305000E+00
       5.88802000E+00
       6.06508000E+00
       6.23668000E+00
       6.39636000E+00
       6.54394000E+00
       6.66960000E+00
       6.73710000E+00
       6.69772000E+00
       6.69989000E+00
       6.71650000E+00
       6.73868000E+00
       6.72043000E+00
       6.67423000E+00
       6.60432000E+00
       6.49371000E+00
       6.28815000E+00
       6.06257000E+00
       5.89054000E+00
       5.74914000E+00
       5.62157000E+00
       5.50209000E+00
       5.38481000E+00
       5.26347000E+00
       5.13399000E+00
       5.00192000E+00
       4.93163000E+00
       5.01550000E+00
       5.14083000E+00
       5.27251000E+00
       5.40867000E+00
       5.55107000E+00
       5.70031000E+00
       5.85425000E+00
       6.00863000E+00
       6.16125000E+00
       6.32064000E+00
       6.49806000E+00
       6.64164000E+00
       6.59991000E+00
       6.62779000E+00
       6.65269000E+00
       6.68527000E+00
       6.67423000E+00
       6.62724000E+00
       6.56162000E+00
       6.47893000E+00
       6.35582000E+00
       6.12231000E+00
       5.85668000E+00
       5.65831000E+00
       5.53413000E+00
       5.43496000E+00
       5.34982000E+00
       5.27041000E+00
       5.18802000E+00
       5.09799000E+00
       5.01673000E+00
       5.00542000E+00
       5.06823000E+00
       5.15526000E+00
       5.25234000E+00
       5.35909000E+00
       5.47697000E+00
       5.60609000E+00
       5.74456000E+00
       5.89029000E+00
       6.05624000E+00
       6.28386000E+00
       6.49202000E+00
       6.46975000E+00
       6.51776000E+00
       6.54868000E+00
       6.59276000E+00
       6.60432000E+00
       6.56162000E+00
       6.49570000E+00
       6.41809000E+00
       6.33016000E+00
       6.21094000E+00
       5.98527000E+00
       5.71317000E+00
       5.46969000E+00
       5.33681000E+00
       5.26457000E+00
       5.21862000E+00
       5.18878000E+00
       5.16287000E+00
       5.12438000E+00
       5.07182000E+00
       5.03721000E+00
       5.04483000E+00
       5.08643000E+00
       5.15220000E+00
       5.23926000E+00
       5.34753000E+00
       5.47695000E+00
       5.62934000E+00
       5.84420000E+00
       6.10470000E+00
       6.33237000E+00
       6.31922000E+00
       6.38455000E+00
       6.41911000E+00
       6.44685000E+00
       6.49371000E+00
       6.47893000E+00
       6.41809000E+00
       6.34067000E+00
       6.25779000E+00
       6.17216000E+00
       6.06845000E+00
       5.86938000E+00
       5.60533000E+00
       5.35403000E+00
       5.18909000E+00
       5.14447000E+00
       5.15143000E+00
       5.18564000E+00
       5.21520000E+00
       5.18558000E+00
       5.09333000E+00
       4.99815000E+00
       4.94885000E+00
       4.95643000E+00
       5.00792000E+00
       5.09696000E+00
       5.23275000E+00
       5.44243000E+00
       5.69517000E+00
       5.94975000E+00
       6.17154000E+00
       6.15258000E+00
       6.23178000E+00
       6.27354000E+00
       6.27518000E+00
       6.28815000E+00
       6.35582000E+00
       6.33016000E+00
       6.25779000E+00
       6.17355000E+00
       6.09083000E+00
       6.01281000E+00
       5.92833000E+00
       5.76867000E+00
       5.52310000E+00
       5.28680000E+00
       5.13379000E+00
       5.13001000E+00
       5.19483000E+00
       5.27454000E+00
       5.30246000E+00
       5.20861000E+00
       5.06801000E+00
       4.93042000E+00
       4.83493000E+00
       4.81641000E+00
       4.88594000E+00
       5.07233000E+00
       5.31125000E+00
       5.55973000E+00
       5.79954000E+00
       6.00560000E+00
       5.97796000E+00
       6.06506000E+00
       6.11483000E+00
       6.11109000E+00
       6.06257000E+00
       6.12231000E+00
       6.21094000E+00
       6.17216000E+00
       6.09083000E+00
       6.00366000E+00
       5.92572000E+00
       5.85915000E+00
       5.79406000E+00
       5.67939000E+00
       5.46545000E+00
       5.26424000E+00
       5.17756000E+00
       5.22714000E+00
       5.31975000E+00
       5.39566000E+00
       5.33194000E+00
       5.19402000E+00
       5.03940000E+00
       4.88957000E+00
       4.78273000E+00
       4.81197000E+00
       4.98843000E+00
       5.20938000E+00
       5.43775000E+00
       5.65397000E+00
       5.83835000E+00
       5.80299000E+00
       5.89294000E+00
       5.94984000E+00
       5.95330000E+00
       5.89054000E+00
       5.85668000E+00
       5.98527000E+00
       6.06845000E+00
       6.01281000E+00
       5.92572000E+00
       5.83944000E+00
       5.77041000E+00
       5.71819000E+00
       5.67198000E+00
       5.59833000E+00
       5.43459000E+00
       5.29816000E+00
       5.29461000E+00
       5.37174000E+00
       5.45472000E+00
       5.43416000E+00
       5.32142000E+00
       5.18245000E+00
       5.03295000E+00
       4.89854000E+00
       4.84696000E+00
       4.95043000E+00
       5.13236000E+00
       5.32928000E+00
       5.51492000E+00
       5.67450000E+00
       5.63120000E+00
       5.72102000E+00
       5.78447000E+00
       5.80041000E+00
       5.74914000E+00
       5.65831000E+00
       5.71317000E+00
       5.86938000E+00
       5.92833000E+00
       5.85915000E+00
       5.77041000E+00
       5.68885000E+00
       5.63228000E+00
       5.59629000E+00
       5.56787000E+00
       5.52530000E+00
       5.43177000E+00
       5.38464000E+00
       5.42909000E+00
       5.49150000E+00
       5.49620000E+00
       5.42572000E+00
       5.31839000E+00
       5.18783000E+00
       5.05274000E+00
       4.95182000E+00
       4.95954000E+00
       5.07825000E+00
       5.23188000E+00
       5.38174000E+00
       5.51547000E+00
       5.46246000E+00
       5.55084000E+00
       5.62079000E+00
       5.65209000E+00
       5.62157000E+00
       5.53413000E+00
       5.46969000E+00
       5.60533000E+00
       5.76867000E+00